LAMMPS data file via write_data, version 30 Nov 2016, timestep = 100000

96 atoms
4 atom types

-1.4897064000000000e+01 1.4897064000000000e+01 xlo xhi
-1.4897064000000000e+01 1.4897064000000000e+01 ylo yhi
-1.4897064000000000e+01 1.4897064000000000e+01 zlo zhi

Masses

1 0.3333
2 0.1
3 0.1
4 0.1

Atoms # full

31 1 3 -1.0000000000000000e+00 -2.7239107503105209e-01 9.3710118992145208e-02 2.8181427190600439e-01 0 0 0
1 1 1 0.0000000000000000e+00 2.2602127355089946e-01 1.2315922072397489e-01 3.0860757681994544e-01 0 0 0
19 1 2 1.0000000000000000e+00 4.9967213594565629e-01 -2.9397833188744182e-01 3.4195013042586431e-01 0 0 0
36 1 3 -1.0000000000000000e+00 9.9808448452760801e-01 -2.6452923015561214e-01 3.6874343533980547e-01 0 0 0
6 1 1 0.0000000000000000e+00 1.2228459707148029e+00 1.8205742418763426e-01 3.6219418664782776e-01 0 0 0
24 1 2 1.0000000000000000e+00 1.7212583192967545e+00 2.1150652591946395e-01 3.8898749156176904e-01 0 0 0
20 1 2 1.0000000000000000e+00 -5.4604193742580909e-01 5.1084767160356181e-01 2.4847171830008552e-01 0 0 0
35 1 3 -1.0000000000000000e+00 1.9460198054839495e+00 6.5809318026271013e-01 3.8243824286979133e-01 0 0 0
2 1 1 0.0000000000000000e+00 -3.2128039478606396e-01 9.5743332860468799e-01 2.4192251567116174e-01 0 0 0
32 1 3 -1.0000000000000000e+00 -5.9493125718082085e-01 1.3745708812161044e+00 2.0857996206524287e-01 0 0 0
5 1 1 0.0000000000000000e+00 1.6723689995417428e+00 1.0752297355320066e+00 3.4909573532692639e-01 0 0 0
23 1 2 1.0000000000000000e+00 1.8971304857289377e+00 1.5218163898752528e+00 3.4254648663494880e-01 0 0 0
21 1 2 1.0000000000000000e+00 -3.7016977099362602e-01 1.8211575355593508e+00 2.0203071337326528e-01 0 0 0
3 1 1 0.0000000000000000e+00 1.2824257758832569e-01 1.8506066372911805e+00 2.2882401828720633e-01 0 0 0
4 1 1 0.0000000000000000e+00 1.1250672747522290e+00 1.9095048407548398e+00 2.8241062811508866e-01 0 0 0
34 1 3 -1.0000000000000000e+00 1.6234796233341808e+00 1.9389539424866695e+00 3.0920393302902993e-01 0 0 0
79 2 3 -1.0000000000000000e+00 -4.4333727932776124e-01 2.8076796454826773e+00 1.6529027170726618e-01 0 0 0
67 2 2 1.0000000000000000e+00 3.2926113779607963e-01 2.4202962818215976e+00 2.2030003070840731e-01 0 0 0
49 2 1 0.0000000000000000e+00 5.5253012277692526e-02 2.8373054178157773e+00 1.8831275485865184e-01 0 0 0
33 1 3 -1.0000000000000000e+00 3.5300406377552052e-01 2.2971932916344269e+00 2.2227476959522874e-01 0 0 0
22 1 2 1.0000000000000000e+00 8.5141641235747223e-01 2.3266423933662566e+00 2.4906807450917001e-01 0 0 0
84 2 3 -1.0000000000000000e+00 8.2785142940153356e-01 2.4499220541546975e+00 2.4332251385979298e-01 0 0 0
54 2 1 0.0000000000000000e+00 1.0524335954886004e+00 2.8965569624819762e+00 2.3435772116142317e-01 0 0 0
72 2 2 1.0000000000000000e+00 1.5510238870940545e+00 2.9261827348150762e+00 2.5738020431280895e-01 0 0 0
68 2 2 1.0000000000000000e+00 -7.1734540484614839e-01 3.2246887814768561e+00 1.3330299585751071e-01 0 0 0
83 2 3 -1.0000000000000000e+00 1.7756060531811215e+00 3.3728176431423544e+00 2.4841541161443914e-01 0 0 0
50 2 1 0.0000000000000000e+00 -4.9276318168693889e-01 3.6713226925545781e+00 1.2433825044648383e-01 0 0 0
80 2 3 -1.0000000000000000e+00 -7.6677130720532605e-01 4.0883318285487569e+00 9.2350974596728364e-02 0 0 0
53 2 1 0.0000000000000000e+00 1.5015979847348770e+00 3.7898257818869765e+00 2.1642818305202671e-01 0 0 0
71 2 2 1.0000000000000000e+00 1.7261801508219436e+00 4.2364606902142548e+00 2.0746339035365691e-01 0 0 0
69 2 2 1.0000000000000000e+00 -5.4218914111825911e-01 4.5349667368760365e+00 8.3386181898358558e-02 0 0 0
51 2 1 0.0000000000000000e+00 -4.3598849512805293e-02 4.5645925092091355e+00 1.0640866504974422e-01 0 0 0
52 2 1 0.0000000000000000e+00 9.5358173369810262e-01 4.6238440538753345e+00 1.5245363135251555e-01 0 0 0
82 2 3 -1.0000000000000000e+00 1.4521720253035566e+00 4.6534698262084344e+00 1.7547611450390133e-01 0 0 0
81 2 3 -1.0000000000000000e+00 1.8098331657426159e-01 5.0112274175364142e+00 9.7443872351374416e-02 0 0 0
70 2 2 1.0000000000000000e+00 6.7957360817971557e-01 5.0408531898695141e+00 1.2046635550276008e-01 0 0 0
7 1 1 0.0000000000000000e+00 1.6986405937343801e-01 1.6605090967714697e-01 1.3061077875039189e+00 0 0 0
43 1 4 0.0000000000000000e+00 6.9272109605917076e-01 -2.3636209206835490e-01 1.3528469935668084e+00 0 0 0
12 1 1 0.0000000000000000e+00 1.1666887565373414e+00 2.2494911314080634e-01 1.3596943973318012e+00 0 0 0
44 1 4 0.0000000000000000e+00 -4.6537369217961688e-01 3.4517008557996554e-01 1.2626432288185452e+00 0 0 0
48 1 4 0.0000000000000000e+00 1.7774818764391660e+00 4.7769104337319912e-01 1.3832131009312807e+00 0 0 0
8 1 1 0.0000000000000000e+00 -3.7743760896352541e-01 1.0003250175578600e+00 1.2394227263551352e+00 0 0 0
11 1 1 0.0000000000000000e+00 1.6162117853642815e+00 1.1181214244851787e+00 1.3465959460108998e+00 0 0 0
45 1 4 0.0000000000000000e+00 -5.3870770003840984e-01 1.6407553986698398e+00 1.2028055714347543e+00 0 0 0
9 1 1 0.0000000000000000e+00 7.2085363410864245e-02 1.8934983262443525e+00 1.2263242289711798e+00 0 0 0
10 1 1 0.0000000000000000e+00 1.0689100605747677e+00 1.9523965297080119e+00 1.2799108387990621e+00 0 0 0
47 1 4 0.0000000000000000e+00 1.7041478685803728e+00 1.7732763564630734e+00 1.3233754435474896e+00 0 0 0
55 2 1 0.0000000000000000e+00 6.5328419397082671e-03 2.8818315532459091e+00 1.1861322617164283e+00 0 0 0
46 1 4 0.0000000000000000e+00 5.4605302388903498e-01 2.3548095314535136e+00 1.2331716327361728e+00 0 0 0
91 2 4 0.0000000000000000e+00 5.2983611326082236e-01 2.4796353034182799e+00 1.2296307791418766e+00 0 0 0
60 2 1 0.0000000000000000e+00 1.0037134251506163e+00 2.9410830979121085e+00 1.2321772280191996e+00 0 0 0
92 2 4 0.0000000000000000e+00 -6.2906148388886785e-01 3.0607098502851207e+00 1.1471161642838363e+00 0 0 0
96 2 4 0.0000000000000000e+00 1.6145948283356750e+00 3.1940258257840686e+00 1.2507173384650718e+00 0 0 0
56 2 1 0.0000000000000000e+00 -5.4148335202492315e-01 3.7158488279847099e+00 1.1221577573042603e+00 0 0 0
59 2 1 0.0000000000000000e+00 1.4528778143968926e+00 3.8343519173171083e+00 1.2142476899098029e+00 0 0 0
93 2 4 0.0000000000000000e+00 -7.0320036596370550e-01 4.3561749195177502e+00 1.0856881087489914e+00 0 0 0
57 2 1 0.0000000000000000e+00 -9.2319019850789608e-02 4.6091186446392678e+00 1.1042281719075207e+00 0 0 0
58 2 1 0.0000000000000000e+00 9.0486156336011836e-01 4.6683701893054668e+00 1.1502731382102920e+00 0 0 0
95 2 4 0.0000000000000000e+00 1.5404559462608374e+00 4.4894908950166990e+00 1.1892892829302268e+00 0 0 0
94 2 4 0.0000000000000000e+00 3.8155829203900427e-01 5.0705664391330956e+00 1.1067746207848437e+00 0 0 0
37 1 3 -1.0000000000000000e+00 -3.8470550338597487e-01 1.7949349689848937e-01 2.2768146932739510e+00 0 0 0
13 1 1 0.0000000000000000e+00 1.1370684519597662e-01 2.0894259863031905e-01 2.3036079981878923e+00 0 0 0
25 1 2 1.0000000000000000e+00 3.8735770759073351e-01 -2.0819495398109766e-01 2.3369505517938114e+00 0 0 0
42 1 3 -1.0000000000000000e+00 8.8577005617268512e-01 -1.7874585224926798e-01 2.3637438567077522e+00 0 0 0
18 1 1 0.0000000000000000e+00 1.1105315423598801e+00 2.6784080209397843e-01 2.3571946080157744e+00 0 0 0
30 1 2 1.0000000000000000e+00 1.6089438909418319e+00 2.9728990382580811e-01 2.3839879129297161e+00 0 0 0
26 1 2 1.0000000000000000e+00 -6.5835636578073176e-01 5.9663104950990609e-01 2.2434721396680324e+00 0 0 0
41 1 3 -1.0000000000000000e+00 1.8337053771290268e+00 7.4387655816905429e-01 2.3774386642377383e+00 0 0 0
14 1 1 0.0000000000000000e+00 -4.3359482314098685e-01 1.0432167065110323e+00 2.2369229370391084e+00 0 0 0
38 1 3 -1.0000000000000000e+00 -7.0724568553574374e-01 1.4603542591224485e+00 2.2035803834331897e+00 0 0 0
17 1 1 0.0000000000000000e+00 1.5600545711868201e+00 1.1610131134383508e+00 2.3440961566948735e+00 0 0 0
29 1 2 1.0000000000000000e+00 1.7848160573740151e+00 1.6075997677815970e+00 2.3375469080028957e+00 0 0 0
27 1 2 1.0000000000000000e+00 -4.8248419934854880e-01 1.9069409134656949e+00 2.1970311347412119e+00 0 0 0
15 1 1 0.0000000000000000e+00 1.5928149233402800e-02 1.9363900151975246e+00 2.2238244396551532e+00 0 0 0
16 1 1 0.0000000000000000e+00 1.0127528463973063e+00 1.9952882186611840e+00 2.2774110494830357e+00 0 0 0
40 1 3 -1.0000000000000000e+00 1.5111651949792582e+00 2.0247373203930135e+00 2.3042043543969770e+00 0 0 0
85 2 3 -1.0000000000000000e+00 -5.4077762000372986e-01 2.8967319163429415e+00 2.1609292854228190e+00 0 0 0
39 1 3 -1.0000000000000000e+00 2.4068963542059768e-01 2.3829766695407710e+00 2.2172751909631758e+00 0 0 0
73 2 2 1.0000000000000000e+00 2.3182079712011103e-01 2.5093485526818617e+00 2.2159390444239602e+00 0 0 0
61 2 1 0.0000000000000000e+00 -4.2187328398276103e-02 2.9263576886760410e+00 2.1839517685742047e+00 0 0 0
28 1 2 1.0000000000000000e+00 7.3910198400254945e-01 2.4124257712726007e+00 2.2440684958771167e+00 0 0 0
90 2 3 -1.0000000000000000e+00 7.3041108872556504e-01 2.5389743250149612e+00 2.2389615275753458e+00 0 0 0
66 2 1 0.0000000000000000e+00 9.5499325481263186e-01 2.9856092333422399e+00 2.2299967348769760e+00 0 0 0
78 2 2 1.0000000000000000e+00 1.4535835464180860e+00 3.0152350056753399e+00 2.2530192180283617e+00 0 0 0
74 2 2 1.0000000000000000e+00 -8.1478574552211691e-01 3.3137410523371202e+00 2.1289420095730636e+00 0 0 0
89 2 3 -1.0000000000000000e+00 1.6781657125051530e+00 3.4618699140026181e+00 2.2440544253299919e+00 0 0 0
62 2 1 0.0000000000000000e+00 -5.9020352236290752e-01 3.7603749634148418e+00 2.1199772641620367e+00 0 0 0
86 2 3 -1.0000000000000000e+00 -8.6421164788129456e-01 4.1773840994090206e+00 2.0879899883122812e+00 0 0 0
65 2 1 0.0000000000000000e+00 1.4041576440589083e+00 3.8788780527472406e+00 2.2120671967675793e+00 0 0 0
77 2 2 1.0000000000000000e+00 1.6287398101459751e+00 4.3255129610745193e+00 2.2031024040692095e+00 0 0 0
75 2 2 1.0000000000000000e+00 -6.3962948179422752e-01 4.6240190077363001e+00 2.0790251956139114e+00 0 0 0
63 2 1 0.0000000000000000e+00 -1.4103919018877398e-01 4.6536447800693992e+00 2.1020476787652971e+00 0 0 0
64 2 1 0.0000000000000000e+00 8.5614139302213399e-01 4.7128963247355991e+00 2.1480926450680684e+00 0 0 0
88 2 3 -1.0000000000000000e+00 1.3547316846275879e+00 4.7425220970686990e+00 2.1711151282194541e+00 0 0 0
87 2 3 -1.0000000000000000e+00 8.3542975898292959e-02 5.1002796883966779e+00 2.0930828860669273e+00 0 0 0
76 2 2 1.0000000000000000e+00 5.8213326750374694e-01 5.1299054607297778e+00 2.1161053692183129e+00 0 0 0

Velocities

31 9.9233692231349285e-02 1.1249822058355556e-02 2.9866750331271681e-02
1 9.7748610593264992e-02 3.9416333856927888e-02 2.6533998190383230e-02
19 1.2124542033415291e-01 5.5109859479115758e-02 3.0026130860864832e-02
36 1.1976033869606861e-01 8.3276371277688097e-02 2.6693378719976381e-02
6 9.4778447317096420e-02 9.5749357454072564e-02 1.9868493908606323e-02
24 9.3293365679012114e-02 1.2391586925264492e-01 1.6535741767717868e-02
20 7.5736882490461385e-02 -4.4437035638323352e-03 2.6374617660790082e-02
35 6.8311474300039948e-02 1.3638885542902937e-01 9.7108569563478155e-03
2 5.0755047089832944e-02 8.0292863313082136e-03 1.9549744762477464e-02
32 2.7258237348945048e-02 -7.6642392908796708e-03 1.6057612091995868e-02
5 4.4814720537495779e-02 1.2069533352559755e-01 6.2187361989236543e-03
23 1.9832829158523593e-02 1.3316831970198204e-01 -6.0614861244639995e-04
21 2.2763459699728511e-03 4.8087468855047832e-03 9.2327272806258139e-03
3 7.9126433188856510e-04 3.2975258684077122e-02 5.8999751397373588e-03
4 -2.1788989442800138e-03 8.9308282281221812e-02 -7.6552914203954769e-04
34 -3.6639805823643068e-03 1.1747479407979415e-01 -4.0982812829279992e-03
79 -4.3775905381838343e-02 -9.8352610704294033e-02 4.3787274981474576e-02
67 -5.1000657154570819e-02 -1.0929250027301954e-01 6.8217495889809174e-02
49 -4.3352575901889762e-02 -1.0608140681700023e-01 4.4564931547601896e-02
33 -2.4190627047083635e-02 4.5448244860461590e-02 -9.2490967163269544e-04
22 -2.5675708685167928e-02 7.3614756659033928e-02 -4.2576618125211470e-03
84 -5.0577327674622238e-02 -1.1702129638572574e-01 6.8995152455936501e-02
54 -4.2505916941992600e-02 -1.2153899904241261e-01 4.6120244679856530e-02
72 -4.2082587462044019e-02 -1.2926779515511883e-01 4.6897901245983836e-02
68 -3.6127824129157299e-02 -9.5141517248274715e-02 2.0134710639267313e-02
83 -3.4011176729414387e-02 -1.3378549781180571e-01 2.4022993469903903e-02
50 -2.8056431547821035e-02 -9.9659218396220287e-02 -2.7401434115525030e-03
80 -2.0408350295139988e-02 -9.6448124940200969e-02 -2.6392707753759764e-02
53 -2.6363113628026708e-02 -1.3057440284704508e-01 3.7048285295676652e-04
71 -1.8291702895397079e-02 -1.3509210550373194e-01 -2.2504424923123184e-02
69 -1.2336939562510342e-02 -1.0096582759688784e-01 -4.9267615529839756e-02
51 -1.1913610082561761e-02 -1.0869462370959404e-01 -4.8489958963712443e-02
52 -1.1066951122664599e-02 -1.2415221593500643e-01 -4.6934645831457809e-02
82 -1.0643621642716018e-02 -1.3188101204771263e-01 -4.6156989265330489e-02
81 -3.8421993499321364e-03 -1.1321232636628092e-01 -7.1364866739792379e-02
70 -3.4188698699835485e-03 -1.2094112247898711e-01 -7.0587210173665080e-02
7 1.0129914551425348e-01 4.8531343989820570e-02 2.6341948076136955e-02
43 1.2405341443609924e-01 7.8308125511294624e-02 2.8167704676174334e-02
12 9.8328982238084908e-02 1.0486436758696525e-01 1.9676443794360052e-02
44 9.1035850271065699e-02 1.2518071239532337e-02 2.7928639838313327e-02
48 8.4352982899686402e-02 1.3926737433310787e-01 1.2931255204315288e-02
8 5.4305582010821425e-02 1.7144296464200896e-02 1.9357694648231193e-02
11 4.8365255458484267e-02 1.2981034365849026e-01 6.0266860846773813e-03
45 1.8317854569619312e-02 7.6872657895832863e-03 1.2453125528593286e-02
9 4.3417992528770530e-03 4.2090268816969811e-02 5.7079250254910875e-03
10 1.3716359767084671e-03 9.8423292414114488e-02 -9.5757925628581902e-04
47 1.1634987198240000e-02 1.3443656888315880e-01 -2.5442591054047545e-03
55 -4.7286497473677462e-02 -5.1720573709232102e-02 4.1947084203295196e-02
46 -2.1382632945137300e-02 6.8646510892640442e-02 -2.7833358563231960e-03
91 -5.4722913986384222e-02 -5.8796065221604514e-02 6.5988476828566137e-02
60 -4.6439838513780300e-02 -6.7178165934644499e-02 4.3502397335549829e-02
92 -4.3885795402932207e-02 -4.2386230114145593e-02 2.9343172328694309e-02
96 -4.1980812743163586e-02 -7.7165812621323479e-02 3.2842626876267239e-02
56 -3.1990353119608732e-02 -4.5298385288452162e-02 -5.3579907558592016e-03
59 -3.0297035199814408e-02 -7.6213569739276940e-02 -2.2473644913499342e-03
93 -2.0306575576259540e-02 -4.4346142406405636e-02 -4.0447982123476424e-02
57 -1.5847531654349462e-02 -5.4333790601825922e-02 -5.1107806308019144e-02
58 -1.5000872694452300e-02 -6.9791382827238305e-02 -4.9552493175764510e-02
95 -1.8401592916490919e-02 -7.9125724913583509e-02 -3.6948527575903500e-02
94 -7.5644561817455429e-03 -6.2715891314865893e-02 -7.3593885801035430e-02
37 1.0633476207332626e-01 2.9479842324140935e-02 2.9482650102779135e-02
13 1.0484968043524198e-01 5.7646354122713260e-02 2.6149897961890683e-02
25 1.2834649017612987e-01 7.3339879744901137e-02 2.9642030632372286e-02
42 1.2686140853804559e-01 1.0150639154347348e-01 2.6309278491483831e-02
18 1.0187951715907340e-01 1.1397937771985794e-01 1.9484393680113777e-02
30 1.0039443552098910e-01 1.4214588951843027e-01 1.6151641539225325e-02
26 8.2837952332438361e-02 1.3786316701953058e-02 2.5990517432297536e-02
41 7.5412544142016924e-02 1.5461887569481475e-01 9.3267567278552677e-03
14 5.7856116931809913e-02 2.6259306597093586e-02 1.9165644533984921e-02
38 3.4359307190922020e-02 1.0565780974905709e-02 1.5673511863503322e-02
17 5.1915790379472755e-02 1.3892535379138293e-01 5.8346359704311082e-03
29 2.6933899000500576e-02 1.5139833996776741e-01 -9.9024884093894434e-04
27 9.3774158119498338e-03 2.3038767151290163e-02 8.8486270521332660e-03
15 7.8923341738655409e-03 5.1205278949862501e-02 5.5158749112448145e-03
16 4.9221708976969619e-03 1.0753830254700718e-01 -1.1496293705320921e-03
40 3.4370892596126690e-03 1.3570481434557952e-01 -4.4823815114205454e-03
85 -5.1643748525413743e-02 1.0369055511242203e-02 3.8551580292861182e-02
39 -1.7089557205106659e-02 6.3678265126246969e-02 -1.3090099001252398e-03
73 -5.8868500298146220e-02 -5.7083405748329513e-04 6.2981801201195772e-02
61 -5.1220419045465163e-02 2.6402593985360295e-03 3.9329236858988495e-02
28 -1.8574638843190938e-02 9.1844776924819307e-02 -4.6417620410136931e-03
90 -5.8445170818197639e-02 -8.2996301701894898e-03 6.3759457767323099e-02
66 -5.0373760085568001e-02 -1.2817332826876374e-02 4.0884549991243128e-02
78 -4.9950430605619420e-02 -2.0546128939582575e-02 4.1662206557370449e-02
74 -4.3995667272732700e-02 1.3580148967261521e-02 1.4899015950653913e-02
89 -4.1879019872989788e-02 -2.5063831596269452e-02 1.8787298781290502e-02
62 -3.5924274691396432e-02 9.0624478193159497e-03 -7.9758381001659023e-03
86 -2.8276193438715388e-02 1.2273541275335281e-02 -3.1628402442373159e-02
65 -3.4230956771602108e-02 -2.1852736631508822e-02 -4.8652118356566337e-03
77 -2.6159546038972477e-02 -2.6370439288195699e-02 -2.7740119611736586e-02
75 -2.0204782706085743e-02 7.7558386186483835e-03 -5.4503310218453158e-02
63 -1.9781453226137159e-02 2.7042505942202755e-05 -5.3725653652325844e-02
64 -1.8934794266239997e-02 -1.5430549719470193e-02 -5.2170340520071211e-02
88 -1.8511464786291412e-02 -2.3159345832176395e-02 -5.1392683953943891e-02
87 -1.1710042493507537e-02 -4.4906601507446742e-03 -7.6600561428405767e-02
76 -1.1286713013558949e-02 -1.2219456263450869e-02 -7.5822904862278467e-02
