LAMMPS data file via MATLAB script

48 atoms
3 bonds
6 angles
9 dihedrals
0 impropers

14 atom types
1 bond types
1 angle types
2 dihedral types

-12.000000 12.000000 xlo xhi
-12.000000 12.000000 ylo yhi
-12.000000 12.000000 zlo zhi

Atoms

1 1 1 0 0.577350 0.000000 0.000000
2 1 1 0 0.577350 0.000000 1.000000
3 1 1 0 0.577350 0.000000 2.000000
4 1 2 0 0.317543 0.150000 0.000000
5 1 3 0 0.317543 0.150000 1.000000
6 1 4 0 0.317543 0.150000 2.000000
7 1 5 0 0.317543 -0.150000 0.000000
8 1 6 0 0.317543 -0.150000 1.000000
9 1 7 0 0.317543 -0.150000 2.000000
10 1 14 0 0.277350 0.000000 0.000000
11 2 1 0 1.577350 0.000000 0.000000
12 2 1 0 1.577350 0.000000 1.000000
13 2 1 0 1.577350 0.000000 2.000000
14 2 11 0 1.877350 0.000000 0.000000
15 2 12 0 1.877350 0.000000 1.000000
16 2 13 0 1.877350 0.000000 2.000000
17 3 1 0 -0.288675 0.500000 0.000000
18 3 1 0 -0.288675 0.500000 1.000000
19 3 1 0 -0.288675 0.500000 2.000000
20 3 2 0 -0.288675 0.200000 0.000000
21 3 3 0 -0.288675 0.200000 1.000000
22 3 4 0 -0.288675 0.200000 2.000000
23 3 5 0 -0.028868 0.350000 0.000000
24 3 6 0 -0.028868 0.350000 1.000000
25 3 7 0 -0.028868 0.350000 2.000000
26 3 14 0 -0.138675 0.240192 0.000000
27 4 1 0 -0.788675 1.366025 0.000000
28 4 1 0 -0.788675 1.366025 1.000000
29 4 1 0 -0.788675 1.366025 2.000000
30 4 11 0 -0.938675 1.625833 0.000000
31 4 12 0 -0.938675 1.625833 1.000000
32 4 13 0 -0.938675 1.625833 2.000000
33 5 1 0 -0.288675 -0.500000 0.000000
34 5 1 0 -0.288675 -0.500000 1.000000
35 5 1 0 -0.288675 -0.500000 2.000000
36 5 2 0 -0.028868 -0.350000 0.000000
37 5 3 0 -0.028868 -0.350000 1.000000
38 5 4 0 -0.028868 -0.350000 2.000000
39 5 5 0 -0.288675 -0.200000 0.000000
40 5 6 0 -0.288675 -0.200000 1.000000
41 5 7 0 -0.288675 -0.200000 2.000000
42 5 14 0 -0.138675 -0.240192 0.000000
43 6 1 0 -0.788675 -1.366025 0.000000
44 6 1 0 -0.788675 -1.366025 1.000000
45 6 1 0 -0.788675 -1.366025 2.000000
46 6 11 0 -0.938675 -1.625833 0.000000
47 6 12 0 -0.938675 -1.625833 1.000000
48 6 13 0 -0.938675 -1.625833 2.000000

Bonds

1 1 1 11
2 1 17 27
3 1 33 43

Angles

1 1 1 11 12
2 1 11 1 2
3 1 17 27 28
4 1 27 17 18
5 1 33 43 44
6 1 43 33 34

Dihedrals

1 1 1 2 12 11
2 2 11 1 2 10
3 2 1 11 12 14
4 1 17 18 28 27
5 2 27 17 18 26
6 2 17 27 28 30
7 1 33 34 44 43
8 2 43 33 34 42
9 2 33 43 44 46


